/*--------------------------------*- C++ -*----------------------------------*\
| =========                 |                                                 |
| \\      /  F ield         | OpenFOAM: The Open Source CFD Toolbox           |
|  \\    /   O peration     | Version:  1.7.0                                 |
|   \\  /    A nd           | Web:      www.OpenFOAM.com                      |
|    \\/     M anipulation  |                                                 |
\*---------------------------------------------------------------------------*/
FoamFile
{
    version     2.0;
    format      ascii;
    class       volScalarField;
    object      alpha;
}
// * * * * * * * * * * * * * * * * * * * * * * * * * * * * * * * * * * * * * //

dimensions      [0 0 0 0 0 0 0];

internalField   nonuniform List<scalar> 
1875
(
0.0548304
0.0623421
0.0794524
0.0894836
0.0869981
0.0812588
0.0751103
0.074022
0.0748355
0.0763597
0.0788793
0.0792552
0.0769845
0.0688926
0.0519894
-0.00753741
-0.0428937
-0.00611334
0.048526
0.0654223
0.0534083
0.0388266
0.030309
0.0906403
0.0573169
0.0677585
0.0749894
0.111227
0.150629
0.207244
0.224638
0.216721
0.212082
0.209764
0.205933
0.2054
0.210627
0.240833
0.252489
0.263075
0.256311
0.184737
0.0647795
0.0565476
0.0705269
0.0468687
0.0503781
0.447745
0.228626
0.0412855
0.0765878
0.0920896
0.0945796
0.0897102
0.0908506
0.108966
0.11928
0.122283
0.129163
0.133902
0.148538
0.147656
0.208823
0.287814
0.392839
0.432889
0.179282
0.0602057
0.0490536
0.06326
0.0301004
0.044322
0.347753
0.222614
0.0580661
0.0774311
0.168999
0.15296
0.150495
0.199711
0.217948
0.204586
0.163955
0.148388
0.199424
0.230525
0.25015
0.314607
0.367503
0.407244
0.365514
0.146976
0.0600631
0.0484226
0.0589758
0.0215465
0.0713673
0.383296
0.252538
0.084849
0.0747927
0.191497
0.250551
0.272281
0.318538
0.383113
0.383273
0.264682
0.245327
0.261841
0.26286
0.272433
0.302876
0.324439
0.333574
0.236679
0.130168
0.0519667
0.0408861
0.0403899
0.0314694
0.209634
0.363462
0.251125
0.0990826
0.0707352
0.169339
0.252151
0.296879
0.363435
0.449059
0.468992
0.396875
0.342303
0.279122
0.260497
0.259759
0.26695
0.263158
0.228365
0.157612
0.094658
0.0450925
0.0412135
0.0406224
0.0562977
0.239062
0.285406
0.246931
0.121172
0.067325
0.130564
0.2262
0.296236
0.388328
0.42684
0.4202
0.380098
0.348687
0.2758
0.251542
0.248472
0.240963
0.204851
0.157356
0.114521
0.0636012
0.0434253
0.042109
0.0439311
0.0447382
0.172608
0.219094
0.246152
0.174903
0.0710112
0.119501
0.215013
0.253163
0.339988
0.391225
0.391718
0.352378
0.321078
0.250197
0.217584
0.198278
0.149976
0.0965145
0.0715715
0.0488777
0.032089
0.0278189
0.0264319
0.0373729
0.0549931
0.146785
0.194982
0.234741
0.216862
0.079705
0.123036
0.22043
0.205523
0.285796
0.334684
0.341156
0.299131
0.243703
0.186723
0.145023
0.109432
0.0675873
0.0437774
0.0351756
0.029131
0.0268031
0.0263992
0.0398214
0.0861432
0.186649
0.206589
0.184828
0.177847
0.216311
0.0980646
0.158972
0.219526
0.212652
0.215522
0.287711
0.307771
0.290046
0.222114
0.17485
0.123933
0.0765666
0.049647
0.0436035
0.0419767
0.0445667
0.0455322
0.0620655
0.12025
0.193307
0.203171
0.164683
0.11598
0.0515884
0.124322
0.122133
0.166609
0.187273
0.260493
0.156644
0.227162
0.264839
0.26524
0.220878
0.183168
0.141973
0.0936408
0.0553278
0.0454663
0.0444621
0.0536388
0.0678897
0.0763383
0.124482
0.17042
0.166777
0.093375
0.0531459
0.0369463
0.0793561
0.135147
0.14964
0.130448
0.232007
0.152537
0.144557
0.21448
0.227568
0.210087
0.180639
0.151288
0.119606
0.0851365
0.0636338
0.0493
0.0527713
0.0651455
0.0709015
0.109781
0.14225
0.110684
0.0638487
0.0564369
0.0660823
0.0733794
0.114427
0.102706
0.110863
0.22586
0.163777
0.118543
0.146743
0.159867
0.161461
0.156442
0.138646
0.119527
0.0931598
0.0813179
0.0691131
0.0532866
0.052539
0.0552604
0.0915788
0.119602
0.105888
0.0744529
0.0736707
0.0851352
0.0822765
0.0935111
0.0781043
0.1283
0.25283
0.194458
0.12161
0.133576
0.13755
0.116304
0.10647
0.0959323
0.0963314
0.0859499
0.0790304
0.0798881
0.0695575
0.0468794
0.045673
0.0690178
0.0987212
0.108624
0.115233
0.105172
0.0871229
0.0928747
0.0893538
0.10332
0.217173
0.269753
0.248991
0.162985
0.159579
0.154646
0.131756
0.122903
0.0967894
0.0603195
0.0536782
0.0571817
0.0700661
0.0683329
0.0501124
0.0474957
0.058922
0.111262
0.134974
0.224772
0.111677
0.0843613
0.0935528
0.0966561
0.145988
0.238686
0.255086
0.298776
0.278011
0.267961
0.225304
0.192444
0.173069
0.150692
0.0936343
0.0556795
0.0356709
0.0357751
0.0515386
0.0498478
0.0497518
0.066669
0.0985403
0.167985
0.369332
0.132743
0.0817724
0.0929611
0.09811
0.139726
0.223975
0.284027
0.343136
0.299245
0.300596
0.238071
0.214182
0.184088
0.149869
0.108982
0.0874414
0.0491691
0.0249572
0.0408524
0.0580323
0.0612652
0.0660238
0.0811548
0.331684
0.403015
0.168862
0.0919107
0.0962834
0.0870445
0.129929
0.240926
0.344756
0.349775
0.254159
0.255671
0.221588
0.179509
0.146754
0.116876
0.109119
0.0955241
0.0492485
0.0267314
0.0465165
0.0728545
0.0626188
0.0637975
0.179579
0.587234
0.392564
0.170314
0.104982
0.101461
0.082968
0.138115
0.221738
0.359542
0.38503
0.230013
0.157187
0.126144
0.110976
0.110138
0.100497
0.107823
0.0945146
0.0389688
0.0298509
0.0547451
0.0822809
0.0999533
0.251597
0.579825
0.545611
0.2949
0.155745
0.117418
0.105052
0.0804842
0.155847
0.232088
0.345762
0.347085
0.238022
0.143914
0.116049
0.10605
0.206644
0.257038
0.114064
0.0612149
0.0333713
0.056496
0.131705
0.26974
0.443914
0.560254
0.560335
0.381546
0.197076
0.149187
0.143069
0.109416
0.0749609
0.160217
0.199702
0.280171
0.152145
0.0666199
0.0664734
0.246929
0.411514
0.232806
0.138512
0.0750425
0.0472559
0.0430703
0.114505
0.265859
0.372059
0.509452
0.518379
0.457894
0.246365
0.151931
0.167832
0.154085
0.110464
0.0735592
0.146848
0.116694
0.112635
0.0699891
0.13673
0.21846
0.230052
0.186718
0.110921
0.0628627
0.0448772
0.0383663
0.039168
0.0745422
0.172378
0.248831
0.349149
0.311709
0.24349
0.147145
0.140529
0.188856
0.164601
0.106747
0.0790884
0.153479
0.0795915
0.0781586
0.120561
0.181516
0.179797
0.121291
0.0826141
0.0589958
0.0487892
0.0403689
0.0378203
0.0379202
0.0573637
0.101884
0.165751
0.190452
0.221
0.194913
0.133608
0.159464
0.203918
0.167519
0.101151
0.09665
0.210314
0.0815409
0.0744753
0.116489
0.206315
0.208986
0.135264
0.0973566
0.0747559
0.0634323
0.0596599
0.0633453
0.0828083
0.113468
0.145417
0.162084
0.163624
0.167911
0.144579
0.151549
0.169855
0.191262
0.161312
0.0953067
0.112863
0.267305
0.0989029
0.0706988
0.0990652
0.182928
0.212421
0.195796
0.165598
0.146548
0.143884
0.151158
0.142071
0.130347
0.116366
0.115752
0.124926
0.131747
0.125657
0.120496
0.172531
0.160014
0.148438
0.131303
0.0883712
0.128229
0.242534
0.130967
0.0742772
0.0912205
0.115682
0.146866
0.164485
0.161747
0.155232
0.152602
0.163635
0.169006
0.167986
0.190025
0.157539
0.108648
0.0985405
0.103051
0.131785
0.167211
0.142075
0.128811
0.111151
0.0847732
0.129201
0.179547
0.220509
0.116071
0.0958854
0.0944166
0.101064
0.124314
0.129561
0.139907
0.140398
0.14653
0.158682
0.160032
0.180787
0.241484
0.234778
0.170716
0.115324
0.113047
0.130376
0.133579
0.12739
0.108146
0.084428
0.10362
0.121922
0.225395
0.239289
0.184898
0.126716
0.111901
0.110005
0.111768
0.120903
0.121045
0.122699
0.132938
0.133927
0.145275
0.199037
0.218323
0.20341
0.159977
0.127579
0.119277
0.121591
0.119737
0.106927
0.0821054
0.0720205
0.106533
0.173912
0.268948
0.311379
0.288807
0.195192
0.123459
0.0796412
0.0890668
0.0922096
0.0930014
0.0982812
0.0969353
0.0980796
0.120295
0.151066
0.157561
0.152403
0.147656
0.130065
0.121221
0.116618
0.107411
0.0815869
0.0676607
0.107157
0.0907348
0.166579
0.291194
0.326016
0.312991
0.203253
0.0925379
0.0650276
0.0614715
0.0623592
0.0661354
0.0675073
0.0754019
0.104681
0.122505
0.135594
0.156166
0.153096
0.138932
0.126082
0.115436
0.108077
0.0847511
0.0743721
0.0880376
0.0701451
0.0799815
0.168513
0.301919
0.318485
0.297068
0.158781
0.0713156
0.0546533
0.0561697
0.0605606
0.0671945
0.0857768
0.120043
0.126673
0.136642
0.155562
0.152807
0.138254
0.12699
0.115136
0.109868
0.0943809
0.0838388
0.0792101
0.0918152
0.0912964
0.101162
0.209734
0.299239
0.295133
0.242351
0.117571
0.0598923
0.0525311
0.0644173
0.088498
0.11878
0.128214
0.125473
0.132328
0.140341
0.143864
0.13048
0.129544
0.116245
0.120045
0.112124
0.0836255
0.0879137
0.129468
0.163628
0.13205
0.166991
0.262016
0.286284
0.260528
0.135244
0.0622901
0.0595454
0.0879414
0.118031
0.125827
0.120171
0.117353
0.11451
0.110944
0.118052
0.117335
0.126932
0.122718
0.130888
0.131661
0.0800041
0.0946197
0.14806
0.362202
0.130677
0.118569
0.229349
0.257811
0.242196
0.130319
0.0671586
0.0819486
0.115956
0.141426
0.11814
0.103259
0.106816
0.10341
0.108799
0.107826
0.104273
0.116253
0.165552
0.140155
0.140517
0.0819721
0.11019
0.175134
0.430433
0.216516
0.107979
0.162629
0.248259
0.235117
0.116561
0.0626958
0.104693
0.137766
0.132552
0.111273
0.099622
0.105306
0.103302
0.11518
0.113579
0.104357
0.122648
0.176603
0.148223
0.14304
0.0919238
0.112423
0.123886
0.361632
0.582615
0.2652
0.198887
0.26463
0.197837
0.0842478
0.0620283
0.122689
0.144344
0.117382
0.100239
0.0937794
0.0971306
0.114798
0.114548
0.108852
0.118169
0.137958
0.169438
0.155229
0.139919
0.094834
0.115104
0.10249
0.292801
0.474725
0.423076
0.264832
0.239504
0.128072
0.073392
0.0725883
0.131133
0.135074
0.103092
0.0914723
0.0833994
0.07806
0.1034
0.112956
0.109789
0.131722
0.141156
0.142969
0.157691
0.123666
0.0918485
0.122871
0.087835
0.226215
0.391053
0.406831
0.27239
0.175651
0.104971
0.0796616
0.106128
0.156863
0.130645
0.0972547
0.0838792
0.0710501
0.0627999
0.0844029
0.104839
0.10565
0.14044
0.138959
0.113898
0.180972
0.111637
0.097422
0.113604
0.102632
0.129757
0.219307
0.327667
0.286688
0.172195
0.115668
0.0954983
0.142016
0.178497
0.134204
0.0865106
0.0631957
0.057235
0.0581712
0.0776772
0.0973227
0.10738
0.152177
0.138453
0.111105
0.242982
0.114065
0.0982482
0.125046
0.136851
0.0752342
0.0976802
0.248451
0.272298
0.200694
0.13828
0.120795
0.150016
0.178824
0.149769
0.0954581
0.0738712
0.0750659
0.0733562
0.0792874
0.0922305
0.12327
0.158277
0.127999
0.136705
0.207612
0.129018
0.102733
0.151993
0.187422
0.113407
0.0738066
0.133507
0.219951
0.19558
0.163204
0.14757
0.165432
0.188831
0.172178
0.138631
0.161668
0.152498
0.0774796
0.0535821
0.0646048
0.113833
0.157906
0.133765
0.16394
0.112103
0.120106
0.102689
0.162691
0.2814
0.311145
0.154686
0.121118
0.184539
0.204634
0.193035
0.182956
0.186691
0.190212
0.187305
0.160247
0.164423
0.166003
0.149418
0.0939451
0.0597502
0.0647413
0.123263
0.126259
0.162135
0.0974875
0.0955192
0.0952817
0.141839
0.312024
0.351307
0.290589
0.215275
0.206651
0.201818
0.188995
0.177082
0.177492
0.178479
0.173158
0.155159
0.154498
0.154583
0.156828
0.160269
0.118679
0.0715912
0.0918959
0.118617
0.170166
0.179512
0.0766929
0.102228
0.099936
0.187074
0.257043
0.228663
0.184211
0.172626
0.161297
0.156115
0.136871
0.140182
0.139453
0.128013
0.128491
0.130873
0.124411
0.11945
0.151349
0.164335
0.114861
0.106773
0.125989
0.178082
0.230365
0.0867008
0.104458
0.117647
0.0969655
0.184994
0.172864
0.110369
0.10045
0.0894637
0.0881788
0.0857815
0.0843227
0.0866928
0.0876044
0.0909866
0.109494
0.122071
0.139084
0.178011
0.16608
0.121419
0.128967
0.166996
0.14498
0.205479
0.130619
0.102034
0.167795
0.112605
0.156709
0.187314
0.111508
0.0994387
0.0907358
0.0788382
0.0753522
0.0782186
0.0848895
0.0854934
0.0885042
0.111412
0.135562
0.153193
0.172025
0.164249
0.150729
0.174226
0.144833
0.0695522
0.138636
0.167467
0.103535
0.195937
0.206743
0.156178
0.194497
0.147236
0.122842
0.121623
0.0824244
0.0705113
0.0885346
0.106945
0.103345
0.0983153
0.118606
0.150526
0.146847
0.148472
0.168906
0.179927
0.161697
0.135224
0.144459
0.0956971
0.124976
0.107786
0.208219
0.296968
0.164823
0.187729
0.167989
0.137431
0.108683
0.0791975
0.0805105
0.102784
0.183344
0.231029
0.160742
0.134688
0.148719
0.128272
0.153076
0.181951
0.184257
0.166222
0.136055
0.215382
0.140255
0.104093
0.109439
0.20285
0.275501
0.186003
0.170711
0.167328
0.134415
0.0888649
0.0708317
0.0974769
0.174393
0.283963
0.347231
0.232965
0.158663
0.147479
0.125899
0.163708
0.197109
0.205366
0.224018
0.207064
0.182863
0.18699
0.107881
0.108852
0.184169
0.223735
0.230926
0.154129
0.153713
0.105787
0.0738739
0.104193
0.178962
0.214022
0.244651
0.265222
0.206634
0.156731
0.147709
0.132284
0.18025
0.209238
0.217065
0.267435
0.339214
0.177857
0.163943
0.118395
0.101934
0.15671
0.221405
0.248208
0.148586
0.119594
0.104953
0.110115
0.176242
0.19167
0.181519
0.178889
0.183299
0.162397
0.153071
0.15231
0.163671
0.178417
0.208728
0.234282
0.254146
0.242248
0.223657
0.200357
0.119445
0.0958487
0.144491
0.253086
0.261182
0.156351
0.121613
0.128773
0.170507
0.190858
0.188049
0.165656
0.155113
0.151492
0.148501
0.130312
0.126454
0.134026
0.154681
0.192332
0.256064
0.269837
0.290542
0.362155
0.267312
0.11689
0.0932029
0.169644
0.352207
0.319325
0.211248
0.139341
0.148064
0.176046
0.197405
0.216558
0.206988
0.151158
0.140208
0.139815
0.130907
0.126903
0.130433
0.135134
0.149332
0.215821
0.25025
0.31481
0.347585
0.265442
0.0939545
0.0964387
0.236057
0.382995
0.38326
0.301354
0.222575
0.201611
0.196668
0.1845
0.197447
0.218928
0.208369
0.174246
0.143584
0.141439
0.157112
0.157354
0.163814
0.186883
0.226223
0.264224
0.317313
0.319042
0.239438
0.0871377
0.0973185
0.242876
0.361566
0.377797
0.326433
0.293286
0.268339
0.271344
0.239783
0.216599
0.218599
0.23477
0.226306
0.151349
0.120205
0.117848
0.137814
0.193677
0.258175
0.25663
0.281732
0.295599
0.277331
0.177728
0.0562367
0.145285
0.251732
0.297866
0.313549
0.306309
0.295189
0.290474
0.291793
0.281567
0.273813
0.270739
0.282995
0.297537
0.27172
0.195667
0.161762
0.186161
0.253705
0.28154
0.280162
0.285981
0.285637
0.277834
0.210687
0.0871008
0.784432
0.702559
0.641179
0.595601
0.584609
0.59835
0.648602
0.681405
0.740051
0.787236
0.820313
0.8317
0.852937
0.877907
0.869415
0.864211
0.846847
0.823965
0.74757
0.696188
0.660893
0.67014
0.682383
0.738821
0.77547
0.992354
0.991562
0.989776
0.989407
0.988263
0.99076
0.992934
0.994268
0.996292
0.99632
0.996489
0.996169
0.995278
0.993918
0.993578
0.992796
0.992128
0.99058
0.989497
0.988317
0.986049
0.985622
0.985174
0.985657
0.986734
0.9997
0.999714
0.999795
0.999857
0.999864
0.999923
0.999932
0.999918
0.999906
0.999886
0.999872
0.999848
0.999795
0.999706
0.999667
0.999596
0.999578
0.999534
0.999558
0.999546
0.999478
0.999402
0.999383
0.999328
0.99935
0.99999
0.999992
0.999996
0.999998
0.999999
0.999999
0.999999
0.999998
0.999997
0.999996
0.999995
0.999994
0.999991
0.999986
0.999982
0.999977
0.999976
0.999978
0.99998
0.999981
0.999979
0.999974
0.999974
0.999971
0.999974
1
1
1
1
1
1
1
1
1
1
1
1
1
0.999999
0.999999
0.999999
0.999999
0.999999
0.999999
0.999998
0.999997
0.999997
0.999998
0.999999
0.999999
1
1
1
1
1
1
1
1
1
1
1
1
1
1
1
1
1
1
1
0.999998
0.999998
0.999998
0.999999
1
1
1
1
1
1
1
1
1
1
1
1
1
1
1
1
1
1
1
1
1
0.999998
0.999997
0.999997
0.999999
1
1
1
1
1
1
1
1
1
1
1
1
1
1
1
1
1
1
1
1
1
0.999998
0.999995
0.999996
0.999998
1
1
1
1
1
1
1
1
1
1
1
1
1
1
1
1
1
1
1
1
1
0.999997
0.999994
0.999994
0.999997
1
1
1
1
1
1
1
1
1
1
1
1
1
1
1
1
1
1
1
1
1
0.999997
0.999992
0.999992
0.999996
1
1
1
1
1
1
1
1
1
1
1
1
1
1
1
1
1
1
1
1
1
0.999996
0.99999
0.999989
0.999994
1
1
1
1
1
1
1
1
1
1
1
1
1
1
1
1
1
1
1
1
1
0.999996
0.999989
0.999987
0.999992
1
1
1
1
1
1
1
1
1
1
1
1
1
1
1
1
1
1
1
1
1
0.999996
0.999987
0.999985
0.999991
0.999999
1
1
1
1
1
1
1
1
1
1
1
1
1
1
1
1
1
1
1
1
0.999996
0.999986
0.999982
0.999988
0.999999
1
1
1
1
1
1
1
1
1
1
1
1
1
1
1
1
1
1
1
1
0.999996
0.999984
0.999979
0.999986
0.999999
1
1
1
1
1
1
1
1
1
1
1
1
1
1
1
1
1
1
1
1
0.999997
0.999984
0.999978
0.999985
0.999999
1
1
1
1
1
1
1
1
1
1
1
1
1
1
1
1
1
1
1
1
0.999997
0.999984
0.999978
0.999985
0.999999
1
1
1
1
1
1
1
1
1
1
1
1
1
1
1
1
1
1
1
1
0.999998
0.999987
0.999982
0.999987
0.999999
1
1
1
1
1
1
1
1
1
1
1
1
1
1
1
1
1
1
1
1
0.999998
0.999987
0.999983
0.999988
0.999999
1
)
;

boundaryField
{
    inlet           
    {
        type            fixedValue;
        value           uniform 0.5;
    }

    outlet          
    {
        type            inletOutlet;
        inletValue      uniform 1;
        value           uniform 1;
    }

    walls           
    {
        type            zeroGradient;
    }

    defaultFaces    
    {
        type            empty;
    }
}

// ************************************************************************* //
